CHARMM-GUI lammps input

              1502  atoms
              1501  bonds
              2699  angles
              3188  dihedrals

                10  atom types
                12  bond types
                25  angle types
                29  dihedral types

   -150.0000     150.0000 xlo xhi
   -150.0000     150.0000 ylo yhi
   -150.0000     150.0000 zlo zhi

Masses

       1         1.008  # HGA1
       2         1.008  # HGA2
       3         1.008  # HGA3
       4        12.011  # CG2O2
       5        12.011  # CG301
       6        12.011  # CG311
       7        12.011  # CG321
       8        12.011  # CG331
       9        15.999  # OG2D1
      10        15.999  # OG302

Atoms

           1        1      8  -0.270   127.2201525073     0.1861074723    -1.9469424396 # P1-1-MMAR-C1-CG331
           2        1      3   0.090   126.8977730525     1.1132114598    -2.5246581376 # P1-1-MMAR-H11-HGA3
           3        1      3   0.090   128.2646865786     0.3299606606    -1.5176839770 # P1-1-MMAR-H12-HGA3
           4        1      3   0.090   127.1947604693    -0.7281181474    -2.6275999577 # P1-1-MMAR-H13-HGA3
           5        1      5  -0.100   126.1424494114    -0.0653726228    -0.6704887313 # P1-1-MMAR-C2-CG301
           6        1      4   0.960   126.1895093145     1.3186002824     0.2774073376 # P1-1-MMAR-C3-CG2O2
           7        1     10  -0.490   125.7189662281     2.4426938535    -0.4767872291 # P1-1-MMAR-O2-OG302
           8        1      9  -0.630   126.5578366478     1.3732485961     1.4500287761 # P1-1-MMAR-O1-OG2D1
           9        1      8  -0.010   125.5261266706     3.7984715250     0.1248095555 # P1-1-MMAR-C4-CG331
          10        1      3   0.090   124.9050506969     4.4559014945    -0.5837305278 # P1-1-MMAR-H41-HGA3
          11        1      3   0.090   124.9636406006     3.7141939460     1.1237140491 # P1-1-MMAR-H42-HGA3
          12        1      3   0.090   126.5358587168     4.3041906288     0.3135358609 # P1-1-MMAR-H43-HGA3
          13        1      8  -0.270   126.5961710922    -1.3838145088     0.2727660405 # P1-1-MMAR-C5-CG331
          14        1      3   0.090   126.3206914147    -1.1857798706     1.3605116165 # P1-1-MMAR-H51-HGA3
          15        1      3   0.090   126.0506684580    -2.3133744809    -0.1033010792 # P1-1-MMAR-H52-HGA3
          16        1      3   0.090   127.7214866131    -1.5361649546     0.1969449136 # P1-1-MMAR-H53-HGA3
          17        2      7  -0.180   124.5790357427    -0.1939931162    -1.2999065519 # P1-2-MMAR-C1-CG321
          18        2      2   0.090   124.4283913825     0.6791284695    -2.0320229669 # P1-2-MMAR-H11-HGA2
          19        2      2   0.090   124.5188191061    -1.1867005941    -1.8738610634 # P1-2-MMAR-H13-HGA2
          20        2      5  -0.100   123.3133771926    -0.1539522169    -0.2155218147 # P1-2-MMAR-C2-CG301
          21        2      4   0.960   123.3049132675     1.3569485430     0.5260831502 # P1-2-MMAR-C3-CG2O2
          22        2     10  -0.490   122.6745427959     2.3359725231    -0.3168421770 # P1-2-MMAR-O2-OG302
          23        2      9  -0.630   123.6835232014     1.5794042767     1.6759785738 # P1-2-MMAR-O1-OG2D1
          24        2      8  -0.010   122.0912039060     3.6162817284     0.2060792566 # P1-2-MMAR-C4-CG331
          25        2      3   0.090   121.2608567396     3.9851678861    -0.4988232655 # P1-2-MMAR-H41-HGA3
          26        2      3   0.090   121.6257358066     3.4498585358     1.2447074041 # P1-2-MMAR-H42-HGA3
          27        2      3   0.090   122.8863080185     4.4324847327     0.2962463280 # P1-2-MMAR-H43-HGA3
          28        2      8  -0.270   123.3665429714    -1.3593418791     0.9569788673 # P1-2-MMAR-C5-CG331
          29        2      3   0.090   122.5793709235    -1.1395811095     1.7513186182 # P1-2-MMAR-H51-HGA3
          30        2      3   0.090   123.1285920813    -2.3603373179     0.4584650035 # P1-2-MMAR-H52-HGA3
          31        2      3   0.090   124.3696493064    -1.3991393001     1.4675838118 # P1-2-MMAR-H53-HGA3
          32        3      7  -0.180   121.8743198966    -0.3019449927    -1.0683367432 # P1-3-MMAS-C1-CG321
          33        3      2   0.090   121.7804134535     0.6036591349    -1.7681386854 # P1-3-MMAS-H11-HGA2
          34        3      2   0.090   121.9064717972    -1.2616877440    -1.6948231793 # P1-3-MMAS-H13-HGA2
          35        3      5  -0.100   120.5220691488    -0.3558747104    -0.0967342704 # P1-3-MMAS-C2-CG301
          36        3      4   0.960   120.3516187806    -1.9290236497     0.4819043331 # P1-3-MMAS-C3-CG2O2
          37        3     10  -0.490   119.8916079242    -2.8049635394    -0.5619779509 # P1-3-MMAS-O2-OG302
          38        3      9  -0.630   120.5068646025    -2.2844940852     1.6506290712 # P1-3-MMAS-O1-OG2D1
          39        3      8  -0.010   119.3498090153    -4.1724156625    -0.2704490144 # P1-3-MMAS-C4-CG331
          40        3      3   0.090   118.8047303146    -4.5915495361    -1.1901595130 # P1-3-MMAS-H41-HGA3
          41        3      3   0.090   120.1994890907    -4.8866041127     0.0170907079 # P1-3-MMAS-H42-HGA3
          42        3      3   0.090   118.6006444824    -4.1253989006     0.6005796850 # P1-3-MMAS-H43-HGA3
          43        3      8  -0.270   120.5792827042     0.7253311010     1.1952027229 # P1-3-MMAS-C5-CG331
          44        3      3   0.090   119.7465614762     0.5861907618     1.9439071355 # P1-3-MMAS-H51-HGA3
          45        3      3   0.090   121.5450863335     0.6097675031     1.7696125234 # P1-3-MMAS-H52-HGA3
          46        3      3   0.090   120.4676947779     1.7720636674     0.7604797984 # P1-3-MMAS-H53-HGA3
          47        4      7  -0.180   119.2020264517    -0.0402530650    -1.0662076243 # P1-4-MMAR-C1-CG321
          48        4      2   0.090   119.3782550411     0.9317684814    -1.6499525822 # P1-4-MMAR-H11-HGA2
          49        4      2   0.090   119.0782820132    -0.9082908762    -1.8088664577 # P1-4-MMAR-H13-HGA2
          50        4      5  -0.100   117.8122057109     0.1147397752    -0.1857070372 # P1-4-MMAR-C2-CG301
          51        4      4   0.960   117.7766555240     1.6836570676     0.4253564968 # P1-4-MMAR-C3-CG2O2
          52        4     10  -0.490   117.6758618411     2.6481816490    -0.6329242149 # P1-4-MMAR-O2-OG302
          53        4      9  -0.630   117.8277562826     1.9864765863     1.6192999116 # P1-4-MMAR-O1-OG2D1
          54        4      8  -0.010   117.5928211581     4.1176649771    -0.3394619333 # P1-4-MMAR-C4-CG331
          55        4      3   0.090   116.9008248267     4.6368303553    -1.0935549079 # P1-4-MMAR-H41-HGA3
          56        4      3   0.090   117.1691349841     4.2868386462     0.7162024543 # P1-4-MMAR-H42-HGA3
          57        4      3   0.090   118.6332349341     4.5946860761    -0.3885856755 # P1-4-MMAR-H43-HGA3
          58        4      8  -0.270   117.7526097722    -0.9320272454     1.1440650258 # P1-4-MMAR-C5-CG331
          59        4      3   0.090   116.7759978036    -0.7976715224     1.7069342311 # P1-4-MMAR-H51-HGA3
          60        4      3   0.090   117.8433768939    -2.0011849393     0.7605523309 # P1-4-MMAR-H52-HGA3
          61        4      3   0.090   118.5715678452    -0.7770969744     1.8973573022 # P1-4-MMAR-H53-HGA3
          62        5      7  -0.180   116.5347772011    -0.0640318939    -1.2669079552 # P1-5-MMAR-C1-CG321
          63        5      2   0.090   116.4110981494     0.9001198731    -1.8711845408 # P1-5-MMAR-H11-HGA2
          64        5      2   0.090   116.7430984292    -0.9436293963    -1.9708741246 # P1-5-MMAR-H13-HGA2
          65        5      5  -0.100   115.1766736537    -0.3715684495    -0.3999647926 # P1-5-MMAR-C2-CG301
          66        5      4   0.960   115.1441473987     0.9681690054     0.6528212449 # P1-5-MMAR-C3-CG2O2
          67        5     10  -0.490   114.7959587403     2.1377260167    -0.1158558221 # P1-5-MMAR-O2-OG302
          68        5      9  -0.630   115.3411009238     0.9755287868     1.8644337085 # P1-5-MMAR-O1-OG2D1
          69        5      8  -0.010   114.2638399907     3.4135152220     0.4537158625 # P1-5-MMAR-C4-CG331
          70        5      3   0.090   113.4514700906     3.8378247737    -0.2446330704 # P1-5-MMAR-H41-HGA3
          71        5      3   0.090   113.7880815522     3.2348425382     1.4835184872 # P1-5-MMAR-H42-HGA3
          72        5      3   0.090   115.0849354602     4.1997281899     0.5638774008 # P1-5-MMAR-H43-HGA3
          73        5      8  -0.270   115.1885174491    -1.9581525337     0.2248834461 # P1-5-MMAR-C5-CG331
          74        5      3   0.090   114.9841521953    -1.9306645772     1.3397744181 # P1-5-MMAR-H51-HGA3
          75        5      3   0.090   114.4052543083    -2.5773597936    -0.3263982925 # P1-5-MMAR-H52-HGA3
          76        5      3   0.090   116.1716834263    -2.4688195708    -0.0158997499 # P1-5-MMAR-H53-HGA3
          77        6      7  -0.180   113.7798592851    -0.2636115675    -1.2701848391 # P1-6-MMAS-C1-CG321
          78        6      2   0.090   113.7028557825     0.7657530470    -1.7682699012 # P1-6-MMAS-H11-HGA2
          79        6      2   0.090   113.7405509976    -1.0821889069    -2.0716473980 # P1-6-MMAS-H13-HGA2
          80        6      5  -0.100   112.4880114083    -0.4664201081    -0.2306917952 # P1-6-MMAS-C2-CG301
          81        6      4   0.960   112.3439109910    -2.0743189776     0.2665804030 # P1-6-MMAS-C3-CG2O2
          82        6     10  -0.490   111.8184552525    -2.9113296719    -0.7759724800 # P1-6-MMAS-O2-OG302
          83        6      9  -0.630   112.5979771661    -2.4896906094     1.4024561283 # P1-6-MMAS-O1-OG2D1
          84        6      8  -0.010   111.4139395192    -4.3282199920    -0.4754797822 # P1-6-MMAS-C4-CG331
          85        6      3   0.090   110.8920340574    -4.8003300556    -1.3790515734 # P1-6-MMAS-H41-HGA3
          86        6      3   0.090   112.3376462468    -4.9514424936    -0.2017664998 # P1-6-MMAS-H42-HGA3
          87        6      3   0.090   110.6897393171    -4.3466682054     0.4183391459 # P1-6-MMAS-H43-HGA3
          88        6      8  -0.270   112.5455531886     0.4463807622     1.1885003564 # P1-6-MMAS-C5-CG331
          89        6      3   0.090   111.5905621154     0.4011701134     1.7868434987 # P1-6-MMAS-H51-HGA3
          90        6      3   0.090   113.3512581045     0.0160974802     1.8616683662 # P1-6-MMAS-H52-HGA3
          91        6      3   0.090   112.7135983224     1.5305614633     0.9119084490 # P1-6-MMAS-H53-HGA3
          92        7      7  -0.180   111.1638674909    -0.0840275163    -1.1129335601 # P1-7-MMAR-C1-CG321
          93        7      2   0.090   111.2981256822     0.9377226314    -1.6231592497 # P1-7-MMAR-H11-HGA2
          94        7      2   0.090   111.0066830539    -0.8889681023    -1.9210879042 # P1-7-MMAR-H13-HGA2
          95        7      5  -0.100   109.8534538649    -0.0246308018    -0.1259964795 # P1-7-MMAR-C2-CG301
          96        7      4   0.960   109.7900542265     1.5396839654     0.5213115036 # P1-7-MMAR-C3-CG2O2
          97        7     10  -0.490   109.5234933770     2.4940531771    -0.5234031709 # P1-7-MMAR-O2-OG302
          98        7      9  -0.630   109.8771603073     1.8467603548     1.7108877921 # P1-7-MMAR-O1-OG2D1
          99        7      8  -0.010   109.1411480427     3.9123476312    -0.2275932383 # P1-7-MMAR-C4-CG331
         100        7      3   0.090   108.6549316847     4.3952594272    -1.1492391039 # P1-7-MMAR-H41-HGA3
         101        7      3   0.090   108.3861717297     3.9481668895     0.6385443127 # P1-7-MMAR-H42-HGA3
         102        7      3   0.090   110.0664416406     4.5230435051     0.0665526844 # P1-7-MMAR-H43-HGA3
         103        7      8  -0.270   109.8165515515    -1.2368891129     1.0651636371 # P1-7-MMAR-C5-CG331
         104        7      3   0.090   108.9356672370    -1.1480701205     1.7610704583 # P1-7-MMAR-H51-HGA3
         105        7      3   0.090   109.7460443708    -2.2411298372     0.5236460242 # P1-7-MMAR-H52-HGA3
         106        7      3   0.090   110.7218860642    -1.2349385302     1.7344514383 # P1-7-MMAR-H53-HGA3
         107        8      7  -0.180   108.5762450572    -0.1914408497    -1.1521094746 # P1-8-MMAS-C1-CG321
         108        8      2   0.090   108.4899784333     0.7504523288    -1.8069772135 # P1-8-MMAS-H11-HGA2
         109        8      2   0.090   108.7271943996    -1.1063258392    -1.8309522684 # P1-8-MMAS-H13-HGA2
         110        8      5  -0.100   107.2226103233    -0.3844859098    -0.2652689228 # P1-8-MMAS-C2-CG301
         111        8      4   0.960   107.1764166110    -1.9978924682     0.2428121185 # P1-8-MMAS-C3-CG2O2
         112        8     10  -0.490   107.2973367943    -2.8872203083    -0.8791319729 # P1-8-MMAS-O2-OG302
         113        8      9  -0.630   107.0819132645    -2.3904907197     1.4079888049 # P1-8-MMAS-O1-OG2D1
         114        8      8  -0.010   107.3861463149    -4.3737317408    -0.6936967031 # P1-8-MMAS-C4-CG331
         115        8      3   0.090   106.7085404833    -4.9102529229    -1.4477884469 # P1-8-MMAS-H41-HGA3
         116        8      3   0.090   108.4664594935    -4.7282074062    -0.8374545458 # P1-8-MMAS-H42-HGA3
         117        8      3   0.090   107.0536753685    -4.6683246468     0.3664663965 # P1-8-MMAS-H43-HGA3
         118        8      8  -0.270   107.2058578852     0.6356309274     1.1002235273 # P1-8-MMAS-C5-CG331
         119        8      3   0.090   106.2228462230     0.6146618324     1.6507216567 # P1-8-MMAS-H51-HGA3
         120        8      3   0.090   107.9949090004     0.3956070494     1.8667668394 # P1-8-MMAS-H52-HGA3
         121        8      3   0.090   107.3914074142     1.7017265164     0.7314938446 # P1-8-MMAS-H53-HGA3
         122        9      7  -0.180   105.9908021573    -0.1433287869    -1.3646856908 # P1-9-MMAS-C1-CG321
         123        9      2   0.090   106.2387844926     0.7218804218    -2.0742151737 # P1-9-MMAS-H11-HGA2
         124        9      2   0.090   105.8170553141    -1.1049319966    -1.9623832757 # P1-9-MMAS-H13-HGA2
         125        9      5  -0.100   104.7011636660     0.2338378684    -0.4527196948 # P1-9-MMAS-C2-CG301
         126        9      4   0.960   104.7126323549    -1.0838745009     0.6445973024 # P1-9-MMAS-C3-CG2O2
         127        9     10  -0.490   104.4674102551    -2.2886088799    -0.1167212867 # P1-9-MMAS-O2-OG302
         128        9      9  -0.630   104.8719627856    -1.0692547989     1.8628179137 # P1-9-MMAS-O1-OG2D1
         129        9      8  -0.010   104.1061936112    -3.6115433822     0.4767350975 # P1-9-MMAS-C4-CG331
         130        9      3   0.090   103.3844172822    -4.1650004867    -0.2288426722 # P1-9-MMAS-H41-HGA3
         131        9      3   0.090   105.0310679061    -4.2617404068     0.6359241704 # P1-9-MMAS-H42-HGA3
         132        9      3   0.090   103.5799044834    -3.4723441821     1.4882327861 # P1-9-MMAS-H43-HGA3
         133        9      8  -0.270   104.7780264860     1.8495181604     0.0935421239 # P1-9-MMAS-C5-CG331
         134        9      3   0.090   104.6333948985     1.8840762584     1.2173372792 # P1-9-MMAS-H51-HGA3
         135        9      3   0.090   105.7751788926     2.3063043992    -0.2084526945 # P1-9-MMAS-H52-HGA3
         136        9      3   0.090   103.9800690491     2.4635581531    -0.4400886813 # P1-9-MMAS-H53-HGA3
         137       10      7  -0.180   103.3278581188     0.0724652546    -1.3048749360 # P1-10-MMAR-C1-CG321
         138       10      2   0.090   103.2364347072     0.9014192337    -2.0956962404 # P1-10-MMAR-H11-HGA2
         139       10      2   0.090   103.2943312716    -0.9531773174    -1.8230649499 # P1-10-MMAR-H13-HGA2
         140       10      5  -0.100   102.0744065690     0.1908791378    -0.2345577973 # P1-10-MMAR-C2-CG301
         141       10      4   0.960   101.9692595539     1.7701809742     0.3518555026 # P1-10-MMAR-C3-CG2O2
         142       10     10  -0.490   101.4704977115     2.6781108327    -0.6431341216 # P1-10-MMAR-O2-OG302
         143       10      9  -0.630   102.2528163325     2.1187699463     1.5031062022 # P1-10-MMAR-O1-OG2D1
         144       10      8  -0.010   101.2016304807     4.1135146506    -0.2839936879 # P1-10-MMAR-C4-CG331
         145       10      3   0.090   100.7012514313     4.6626823055    -1.1551538097 # P1-10-MMAR-H41-HGA3
         146       10      3   0.090   100.5097323380     4.1630800161     0.6330995806 # P1-10-MMAR-H42-HGA3
         147       10      3   0.090   102.1865646752     4.6418615590    -0.0200424400 # P1-10-MMAR-H43-HGA3
         148       10      8  -0.270   102.1383987893    -0.8101343213     1.1288995649 # P1-10-MMAR-C5-CG331
         149       10      3   0.090   101.1682767761    -0.9041764631     1.6893424754 # P1-10-MMAR-H51-HGA3
         150       10      3   0.090   102.4153508620    -1.8530140543     0.7976196084 # P1-10-MMAR-H52-HGA3
         151       10      3   0.090   102.8507775031    -0.3373138155     1.8757877265 # P1-10-MMAR-H53-HGA3
         152       11      7  -0.180   100.7667735869    -0.1593480714    -1.1413331827 # P1-11-MMAS-C1-CG321
         153       11      2   0.090   100.5809908276     0.7036970667    -1.8815576880 # P1-11-MMAS-H11-HGA2
         154       11      2   0.090   100.9230310976    -1.1340801370    -1.7324522727 # P1-11-MMAS-H13-HGA2
         155       11      5  -0.100    99.5103908654    -0.3300385366    -0.1202352193 # P1-11-MMAS-C2-CG301
         156       11      4   0.960    99.4586973794    -1.9634752148     0.3489056982 # P1-11-MMAS-C3-CG2O2
         157       11     10  -0.490    99.1333619286    -2.7950131704    -0.7846828093 # P1-11-MMAS-O2-OG302
         158       11      9  -0.630    99.6132473901    -2.4197318918     1.4835863551 # P1-11-MMAS-O1-OG2D1
         159       11      8  -0.010    98.8142045041    -4.2504334076    -0.6097761459 # P1-11-MMAS-C4-CG331
         160       11      3   0.090    98.3564998848    -4.6810547845    -1.5692983517 # P1-11-MMAS-H41-HGA3
         161       11      3   0.090    99.7664557310    -4.8375229368    -0.3535242490 # P1-11-MMAS-H42-HGA3
         162       11      3   0.090    98.0602482507    -4.3867045838     0.2474968821 # P1-11-MMAS-H43-HGA3
         163       11      8  -0.270    99.5144310458     0.7932857880     1.1730470436 # P1-11-MMAS-C5-CG331
         164       11      3   0.090    98.6588016375     0.6333249123     1.8892811071 # P1-11-MMAS-H51-HGA3
         165       11      3   0.090   100.4349432087     0.7829262048     1.8174459965 # P1-11-MMAS-H52-HGA3
         166       11      3   0.090    99.4198722652     1.8315245395     0.6995392926 # P1-11-MMAS-H53-HGA3
         167       12      7  -0.180    98.2100536475    -0.0503718766    -1.0732872810 # P1-12-MMAR-C1-CG321
         168       12      2   0.090    98.3538695258     0.9100936301    -1.6915794475 # P1-12-MMAR-H11-HGA2
         169       12      2   0.090    98.0467083396    -0.9347318487    -1.7885878060 # P1-12-MMAR-H13-HGA2
         170       12      5  -0.100    96.9527960477     0.1337190775    -0.0634548078 # P1-12-MMAR-C2-CG301
         171       12      4   0.960    96.9493566151     1.7602031345     0.4352130704 # P1-12-MMAR-C3-CG2O2
         172       12     10  -0.490    96.6906918772     2.6215629026    -0.6916994547 # P1-12-MMAR-O2-OG302
         173       12      9  -0.630    97.0727175665     2.1866313204     1.5859319177 # P1-12-MMAR-O1-OG2D1
         174       12      8  -0.010    96.3748707087     4.0748922412    -0.4954345197 # P1-12-MMAR-C4-CG331
         175       12      3   0.090    95.9168893399     4.5192400115    -1.4483575147 # P1-12-MMAR-H41-HGA3
         176       12      3   0.090    95.6197611623     4.1989205484     0.3630992573 # P1-12-MMAR-H42-HGA3
         177       12      3   0.090    97.3274875445     4.6555773083    -0.2288303882 # P1-12-MMAR-H43-HGA3
         178       12      8  -0.270    96.9292207129    -1.0027915601     1.2091352570 # P1-12-MMAR-C5-CG331
         179       12      3   0.090    96.0980693651    -0.7921946995     1.9416486308 # P1-12-MMAR-H51-HGA3
         180       12      3   0.090    96.7729204488    -2.0331029121     0.7332755942 # P1-12-MMAR-H52-HGA3
         181       12      3   0.090    97.8737019300    -1.0315298585     1.8168300853 # P1-12-MMAR-H53-HGA3
         182       13      7  -0.180    95.6565201829    -0.0847538565    -1.0252005343 # P1-13-MMAS-C1-CG321
         183       13      2   0.090    95.5700963142     0.7863850716    -1.7716848434 # P1-13-MMAS-H11-HGA2
         184       13      2   0.090    95.7402238392    -1.0711680397    -1.6114162934 # P1-13-MMAS-H13-HGA2
         185       13      5  -0.100    94.3702933136    -0.1291739128    -0.0286655503 # P1-13-MMAS-C2-CG301
         186       13      4   0.960    94.2675564050    -1.7282779787     0.5369024719 # P1-13-MMAS-C3-CG2O2
         187       13     10  -0.490    94.1180072657    -2.6302336721    -0.5744010584 # P1-13-MMAS-O2-OG302
         188       13      9  -0.630    94.2789460155    -2.0994183470     1.7121389080 # P1-13-MMAS-O1-OG2D1
         189       13      8  -0.010    93.8793953826    -4.0964258470    -0.3854420797 # P1-13-MMAS-C4-CG331
         190       13      3   0.090    93.4420281964    -4.5559152712    -1.3425619060 # P1-13-MMAS-H41-HGA3
         191       13      3   0.090    94.8631751006    -4.6321338410    -0.1348884606 # P1-13-MMAS-H42-HGA3
         192       13      3   0.090    93.1367832626    -4.2698812061     0.4737601970 # P1-13-MMAS-H43-HGA3
         193       13      8  -0.270    94.4176672028     1.0529277221     1.1961435198 # P1-13-MMAS-C5-CG331
         194       13      3   0.090    93.4871312406     1.1294315903     1.8167997863 # P1-13-MMAS-H51-HGA3
         195       13      3   0.090    95.2600609494     0.8672217781     1.9236704075 # P1-13-MMAS-H52-HGA3
         196       13      3   0.090    94.5591751753     2.0624993311     0.6751259842 # P1-13-MMAS-H53-HGA3
         197       14      7  -0.180    93.1239473689     0.1307702686    -1.0403538584 # P1-14-MMAR-C1-CG321
         198       14      2   0.090    93.3006431162     1.0647236137    -1.6866195542 # P1-14-MMAR-H11-HGA2
         199       14      2   0.090    93.0198672682    -0.7839579222    -1.7375918692 # P1-14-MMAR-H13-HGA2
         200       14      5  -0.100    91.7979088403     0.3128244080    -0.1242316722 # P1-14-MMAR-C2-CG301
         201       14      4   0.960    91.7360777336     1.9260288057     0.3707843552 # P1-14-MMAR-C3-CG2O2
         202       14     10  -0.490    91.9436696263     2.8136208998    -0.7390378792 # P1-14-MMAR-O2-OG302
         203       14      9  -0.630    91.5912981877     2.3174225810     1.5312736053 # P1-14-MMAR-O1-OG2D1
         204       14      8  -0.010    92.1302165419     4.2884715764    -0.5317523330 # P1-14-MMAR-C4-CG331
         205       14      3   0.090    91.5597550839     4.8790418276    -1.3315132897 # P1-14-MMAR-H41-HGA3
         206       14      3   0.090    91.7372116489     4.6010022708     0.5020937572 # P1-14-MMAR-H42-HGA3
         207       14      3   0.090    93.2443896905     4.5581621093    -0.5876922468 # P1-14-MMAR-H43-HGA3
         208       14      8  -0.270    91.8037683072    -0.6767662052     1.2687279131 # P1-14-MMAR-C5-CG331
         209       14      3   0.090    90.8183664804    -0.6826600024     1.8118915367 # P1-14-MMAR-H51-HGA3
         210       14      3   0.090    92.0203341231    -1.7420610111     0.9194309544 # P1-14-MMAR-H52-HGA3
         211       14      3   0.090    92.5798774010    -0.4141860299     2.0414903740 # P1-14-MMAR-H53-HGA3
         212       15      7  -0.180    90.5943666615    -0.0049228224    -1.2226199737 # P1-15-MMAR-C1-CG321
         213       15      2   0.090    90.3660645730     0.9500693933    -1.8174662489 # P1-15-MMAR-H11-HGA2
         214       15      2   0.090    90.8885935658    -0.8480615220    -1.9437042657 # P1-15-MMAR-H13-HGA2
         215       15      5  -0.100    89.3488783201    -0.4711313034    -0.3096560853 # P1-15-MMAR-C2-CG301
         216       15      4   0.960    89.2592811897     0.8835535551     0.7472124988 # P1-15-MMAR-C3-CG2O2
         217       15     10  -0.490    88.9535570310     2.0476046069    -0.0510630714 # P1-15-MMAR-O2-OG302
         218       15      9  -0.630    89.3862783406     0.9180895033     1.9706556011 # P1-15-MMAR-O1-OG2D1
         219       15      8  -0.010    88.6399434200     3.3882298087     0.5272483067 # P1-15-MMAR-C4-CG331
         220       15      3   0.090    88.0220888074     4.0036154752    -0.2212412061 # P1-15-MMAR-H41-HGA3
         221       15      3   0.090    88.0348802962     3.2758386717     1.4959555966 # P1-15-MMAR-H42-HGA3
         222       15      3   0.090    89.6039076565     3.9634843797     0.7613629956 # P1-15-MMAR-H43-HGA3
         223       15      8  -0.270    89.4843391769    -2.0687825799     0.2889807865 # P1-15-MMAR-C5-CG331
         224       15      3   0.090    89.2456944517    -2.0881794420     1.3961764711 # P1-15-MMAR-H51-HGA3
         225       15      3   0.090    88.7674254178    -2.7350223185    -0.2894914707 # P1-15-MMAR-H52-HGA3
         226       15      3   0.090    90.5157442379    -2.4841505850     0.0608994218 # P1-15-MMAR-H53-HGA3
         227       16      7  -0.180    88.0298790250    -0.4660009347    -1.2408206892 # P1-16-MMAS-C1-CG321
         228       16      2   0.090    87.9400474938     0.5652428327    -1.7530052889 # P1-16-MMAS-H11-HGA2
         229       16      2   0.090    88.0670426128    -1.2808202007    -2.0468025283 # P1-16-MMAS-H13-HGA2
         230       16      5  -0.100    86.7384969222    -0.7114734704    -0.2425295676 # P1-16-MMAS-C2-CG301
         231       16      4   0.960    86.5781925200    -2.3411636547     0.1570195612 # P1-16-MMAS-C3-CG2O2
         232       16     10  -0.490    86.5781998896    -3.1976609419    -0.9933540997 # P1-16-MMAS-O2-OG302
         233       16      9  -0.630    86.5526369332    -2.7708712712     1.3169208745 # P1-16-MMAS-O1-OG2D1
         234       16      8  -0.010    86.7636914706    -4.6819636094    -0.7975775396 # P1-16-MMAS-C4-CG331
         235       16      3   0.090    86.1708384021    -5.2716084943    -1.5764209873 # P1-16-MMAS-H41-HGA3
         236       16      3   0.090    87.8776106394    -4.9470857108    -0.8734742114 # P1-16-MMAS-H42-HGA3
         237       16      3   0.090    86.4018455292    -4.9900799161     0.2508000010 # P1-16-MMAS-H43-HGA3
         238       16      8  -0.270    86.8469212639     0.0116381949     1.2872209159 # P1-16-MMAS-C5-CG331
         239       16      3   0.090    85.8911558080    -0.0119577664     1.8771348508 # P1-16-MMAS-H51-HGA3
         240       16      3   0.090    87.6313924007    -0.5493683839     1.8942545574 # P1-16-MMAS-H52-HGA3
         241       16      3   0.090    87.1269112732     1.1053547341     1.1657320721 # P1-16-MMAS-H53-HGA3
         242       17      7  -0.180    85.5217727616    -0.1848864018    -1.2034991919 # P1-17-MMAS-C1-CG321
         243       17      2   0.090    85.8265935253     0.7579061109    -1.7943055251 # P1-17-MMAS-H11-HGA2
         244       17      2   0.090    85.2406640170    -1.0191423825    -1.9441763055 # P1-17-MMAS-H13-HGA2
         245       17      5  -0.100    84.2910897260     0.1916333919    -0.2304422368 # P1-17-MMAS-C2-CG301
         246       17      4   0.960    84.1437332950    -1.2271113634     0.7053321656 # P1-17-MMAS-C3-CG2O2
         247       17     10  -0.490    83.8595446010    -2.3323401743    -0.1787336133 # P1-17-MMAS-O2-OG302
         248       17      9  -0.630    84.2035591806    -1.3411583796     1.9298436951 # P1-17-MMAS-O1-OG2D1
         249       17      8  -0.010    83.4490194166    -3.6776017053     0.3306023544 # P1-17-MMAS-C4-CG331
         250       17      3   0.090    82.8683364336    -4.2436379859    -0.4813575823 # P1-17-MMAS-H41-HGA3
         251       17      3   0.090    84.3681805451    -4.2927047854     0.6286867614 # P1-17-MMAS-H42-HGA3
         252       17      3   0.090    82.7739722573    -3.5627069738     1.2527910754 # P1-17-MMAS-H43-HGA3
         253       17      8  -0.270    84.4688464224     1.6555641863     0.6104790703 # P1-17-MMAS-C5-CG331
         254       17      3   0.090    84.0089204105     1.5549806335     1.6448362517 # P1-17-MMAS-H51-HGA3
         255       17      3   0.090    85.5424429214     1.9971482489     0.6769986578 # P1-17-MMAS-H52-HGA3
         256       17      3   0.090    83.9387171930     2.4707288895     0.0132508321 # P1-17-MMAS-H53-HGA3
         257       18      7  -0.180    83.0203743321     0.3218285427    -1.2518911785 # P1-18-MMAR-C1-CG321
         258       18      2   0.090    83.1719431643     1.1983636377    -1.9794964442 # P1-18-MMAR-H11-HGA2
         259       18      2   0.090    82.9290546662    -0.6584763193    -1.8552340833 # P1-18-MMAR-H13-HGA2
         260       18      5  -0.100    81.6831754637     0.5475079151    -0.3599931922 # P1-18-MMAR-C2-CG301
         261       18      4   0.960    81.6862033261     2.1135693135     0.2391459257 # P1-18-MMAR-C3-CG2O2
         262       18     10  -0.490    81.8109270490     3.0678419301    -0.8202284834 # P1-18-MMAR-O2-OG302
         263       18      9  -0.630    81.6729958576     2.4043378676     1.4385461367 # P1-18-MMAR-O1-OG2D1
         264       18      8  -0.010    82.1553625945     4.5019162889    -0.5463324821 # P1-18-MMAR-C4-CG331
         265       18      3   0.090    81.4862724051     5.1975116996    -1.1631043885 # P1-18-MMAR-H41-HGA3
         266       18      3   0.090    82.0091981496     4.7421805700     0.5680561146 # P1-18-MMAR-H42-HGA3
         267       18      3   0.090    83.2544403955     4.6960170765    -0.8126478493 # P1-18-MMAR-H43-HGA3